LAMMPS (27 Jun 2024)
OMP_NUM_THREADS environment is not set. Defaulting to 1 thread. (../comm.cpp:98)
  using 1 OpenMP thread(s) per MPI task
Created orthogonal box = (0 0 0) to (10 10 10)
  2 by 2 by 4 MPI processor grid
Created 100 atoms
  using lattice units in orthogonal box = (0 0 0) to (10 10 10)
  create_atoms CPU = 0.001 seconds
Generated 0 of 0 mixed pair_coeff terms from geometric mixing rule
Neighbor list info ...
  update: every = 1 steps, delay = 0 steps, check = yes
  max neighbors/atom: 2000, page size: 100000
  master list distance cutoff = 2.8
  ghost atom cutoff = 2.8
  binsize = 1.4, bins = 8 8 8
  1 neighbor lists, perpetual/occasional/extra = 1 0 0
  (1) pair lj/cut, perpetual
      attributes: half, newton on
      pair build: half/bin/atomonly/newton
      stencil: half/bin/3d
      bin: standard
Setting up cg style minimization ...
  Unit style    : lj
  Current step  : 0
Per MPI rank memory allocation (min/avg/max) = 3.818 | 4.17 | 4.193 Mbytes
   Step          Temp          E_pair         E_mol          TotEng         Press     
         0   0              606969.18      0              606969.18      242835.9     
       333   0             -3.2264141      0             -3.2264141      0.00047140732
Loop time of 0.0281195 on 16 procs for 333 steps with 100 atoms

94.5% CPU use with 16 MPI tasks x 1 OpenMP threads

Minimization stats:
  Stopping criterion = energy tolerance
  Energy initial, next-to-last, final = 
      606969.179681099   -3.2261288346113   -3.2264140896011
  Force two-norm initial, final = 3.2394434e+09 3.1713821
  Force max component initial, final = 1.5928064e+09 0.92995598
  Final line search alpha, max atom move = 0.057253336 0.053243083
  Iterations, force evaluations = 333 654

MPI task timing breakdown:
Section |  min time  |  avg time  |  max time  |%varavg| %total
---------------------------------------------------------------
Pair    | 5.3169e-05 | 0.00083806 | 0.0023618  |   0.0 |  2.98
Neigh   | 0.00021822 | 0.00043408 | 0.00072194 |   0.0 |  1.54
Comm    | 0.016635   | 0.019417   | 0.020888   |   0.8 | 69.05
Output  | 0          | 0          | 0          |   0.0 |  0.00
Modify  | 0          | 0          | 0          |   0.0 |  0.00
Other   |            | 0.00743    |            |       | 26.42

Nlocal:           6.25 ave          23 max           0 min
Histogram: 4 4 3 0 2 2 0 0 0 1
Nghost:        88.4375 ave         108 max          62 min
Histogram: 1 1 1 2 0 4 2 0 4 1
Neighs:         52.625 ave         237 max           0 min
Histogram: 6 4 3 1 0 1 0 0 0 1

Total # of neighbors = 842
Ave neighs/atom = 8.42
Neighbor list builds = 98
Dangerous builds = 0
Generated 0 of 0 mixed pair_coeff terms from geometric mixing rule
Setting up Verlet run ...
  Unit style    : lj
  Current step  : 333
  Time step     : 0.0001
Per MPI rank memory allocation (min/avg/max) = 2.709 | 3.06 | 3.084 Mbytes
   Step          Temp          Press          Volume         PotEng         KinEng         TotEng    
       333   300            29.700471      1000          -3.2264141      445.5          442.27359    
       340   299.38466      29.65597       1000          -3.1977263      444.58622      441.38849    
       350   297.76519      29.579103      1000          -3.0461642      442.18131      439.13514    
       360   295.74055      29.556721      1000          -2.7075928      439.17472      436.46713    
       370   293.3558       29.656195      1000          -2.0316153      435.63337      433.60175    
       380   290.44913      30.00454       1000          -0.67314578     431.31696      430.64381    
       390   286.53765      30.875691      1000           2.1544018      425.50842      427.66282    
       400   280.56405      32.824829      1000           8.080654       416.63761      424.71827    
       410   271.50416      36.380716      1000           18.692122      403.18368      421.87581    
       420   262.2889       40.067434      1000           29.682203      389.49902      419.18122    
       430   257.21514      41.700621      1000           34.653226      381.96448      416.6177     
       433   256.30355      41.885562      1000           35.260902      380.61077      415.87167    
Loop time of 0.0059442 on 16 procs for 100 steps with 100 atoms

Performance: 145351.726 tau/day, 16823.116 timesteps/s, 1.682 Matom-step/s
98.4% CPU use with 16 MPI tasks x 1 OpenMP threads

MPI task timing breakdown:
Section |  min time  |  avg time  |  max time  |%varavg| %total
---------------------------------------------------------------
Pair    | 1.1017e-05 | 0.00010382 | 0.00041197 |   0.0 |  1.75
Neigh   | 1.1044e-05 | 2.2883e-05 | 5.0611e-05 |   0.0 |  0.38
Comm    | 0.0014501  | 0.0019622  | 0.0021343  |   0.4 | 33.01
Output  | 0.001824   | 0.0021717  | 0.0026227  |   0.5 | 36.54
Modify  | 0.00080987 | 0.0009498  | 0.0015569  |   0.0 | 15.98
Other   |            | 0.0007338  |            |       | 12.34

Nlocal:           6.25 ave          23 max           0 min
Histogram: 4 4 2 1 2 2 0 0 0 1
Nghost:         87.125 ave         105 max          59 min
Histogram: 1 0 1 2 1 3 1 2 2 3
Neighs:        51.3125 ave         240 max           0 min
Histogram: 7 3 3 1 0 1 0 0 0 1

Total # of neighbors = 821
Ave neighs/atom = 8.21
Neighbor list builds = 4
Dangerous builds = 0
Generated 0 of 0 mixed pair_coeff terms from geometric mixing rule
Setting up Verlet run ...
  Unit style    : lj
  Current step  : 433
  Time step     : 0.0001
Per MPI rank memory allocation (min/avg/max) = 3.71 | 4.062 | 4.086 Mbytes
   Step          Temp          Press          Volume         PotEng         KinEng         TotEng    
       433   256.30355      41.885562      1000           35.260902      380.61077      415.87167    
       440   255.79629      42.194551      1000           36.016406      379.85749      415.8739     
       450   255.62137      42.330781      1000           36.290448      379.59773      415.88818    
       460   256.32367      41.996032      1000           35.27258       380.64065      415.91323    
       470   257.95679      41.168445      1000           32.883086      383.06583      415.94892    
       480   260.06484      40.084109      1000           29.799441      386.19629      415.99573    
       490   262.21584      38.967599      1000           26.662703      389.39053      416.05323    
       500   264.02469      38.019148      1000           24.044537      392.07666      416.1212     
       510   265.33252      37.32232       1000           22.180661      394.0188       416.19946    
       520   266.41142      36.741561      1000           20.666541      395.62096      416.2875     
       530   267.7505       36.030638      1000           18.774911      397.60949      416.3844     
       540   269.41879      35.15559       1000           16.403143      400.08691      416.49005    
       550   271.06123      34.296335      1000           14.078912      402.52593      416.60484    
       560   272.44082      33.574641      1000           12.153815      404.57462      416.72844    
       570   273.55374      32.993371      1000           10.632944      406.22731      416.86026    
       580   274.47757      32.514123      1000           9.4007044      407.59919      416.99989    
       590   275.28378      32.10088       1000           8.3506749      408.79641      417.14709    
       600   276.01799      31.730147      1000           7.4149117      409.88672      417.30163    
       610   276.69705      31.393202      1000           6.5682367      410.89512      417.46335    
       620   277.31146      31.094856      1000           5.8245992      411.80751      417.63211    
       630   277.83691      30.846906      1000           5.2199634      412.5878       417.80777    
       640   278.25394      30.659256      1000           4.7830804      413.20711      417.99019    
       650   278.56929      30.527824      1000           4.5038434      413.6754       418.17925    
       660   278.8292       30.429147      1000           4.3134777      414.06136      418.37484    
       670   279.11122      30.323289      1000           4.0967233      414.48017      418.57689    
       680   279.48355      30.175882      1000           3.7522668      415.03308      418.78534    
       690   279.9563       29.981746      1000           3.2651111      415.73511      419.00022    
       700   280.47474      29.76939       1000           2.7165489      416.50499      419.22154    
       710   280.95699      29.580681      1000           2.2281377      417.22112      419.44926    
       720   281.32863      29.453966      1000           1.910229       417.77302      419.68325    
       730   281.53728      29.415705      1000           1.8405071      418.08286      419.92337    
       740   281.58464      29.464127      1000           2.0163629      418.15318      420.16955    
       750   281.5925       29.535854      1000           2.2568514      418.16486      420.42171    
       760   281.77604      29.521165      1000           2.2422216      418.43743      420.67965    
       770   282.21046      29.382067      1000           1.8608782      419.08254      420.94341    
       780   282.71817      29.209387      1000           1.3769219      419.83648      421.2134     
       790   283.07397      29.119134      1000           1.1247785      420.36484      421.48962    
       800   283.12931      29.18794       1000           1.3246458      420.44703      421.77168    
       810   282.73828      29.489546      1000           2.1928322      419.86635      422.05919    
       820   281.78861      30.078047      1000           3.8961911      418.45609      422.35228    
       830   280.71702      30.728984      1000           5.7866888      416.86478      422.65147    
       840   280.76513      30.813794      1000           6.0190375      416.93623      422.95526    
       850   282.07561      30.260346      1000           4.3825379      418.88227      423.26481    
       860   283.43885      29.679939      1000           2.6764831      420.90669      423.58317    
       870   284.33719      29.335794      1000           1.6685454      422.24073      423.90928    
       880   284.90406      29.162904      1000           1.1593006      423.08253      424.24183    
       890   285.32438      29.068302      1000           0.87367111     423.70671      424.58038    
       900   285.69464      29.002681      1000           0.66827615     424.25654      424.92482    
       910   286.04905      28.948861      1000           0.49226995     424.78284      425.27511    
       920   286.39412      28.90332       1000           0.33595924     425.29527      425.63123    
       930   286.72828      28.867051      1000           0.20163496     425.7915       425.99313    
       940   287.0495       28.840915      1000           0.092250044    426.26851      426.36076    
       950   287.35675      28.825996      1000           0.0093077753   426.72477      426.73408    
       960   287.64876      28.823137      1000          -0.0453892      427.1584       427.11301    
       970   287.92134      28.834307      1000          -0.065657098    427.56318      427.49753    
       980   288.16058      28.867319      1000          -0.030930509    427.91846      427.88753    
       990   288.3236       28.94483       1000           0.12234394     428.16055      428.28289    
      1000   288.2797       29.133765      1000           0.58786863     428.09536      428.68323    
      1010   287.65254      29.62399       1000           1.9237056      427.16402      429.08772    
      1020   285.68159      30.794098      1000           5.2591503      424.23715      429.49631    
      1030   282.90419      32.365487      1000           9.8002772      420.11273      429.913      
      1040   283.79595      32.081509      1000           8.8907729      421.43699      430.32776    
      1050   287.17255      30.541378      1000           4.2999658      426.45124      430.7512     
      1060   289.22231      29.669566      1000           1.6942745      429.49513      431.18941    
      1070   290.15096      29.368767      1000           0.76055118     430.87418      431.63473    
      1080   290.6385       29.298559      1000           0.48741841     431.59817      432.08559    
      1090   290.96672      29.315797      1000           0.45626644     432.08558      432.54185    
      1100   291.22242      29.376173      1000           0.53814716     432.46529      433.00344    
      1110   291.42103      29.47138       1000           0.71005861     432.76024      433.47029    
      1120   291.5446       29.610648      1000           0.9985822      432.94372      433.94231    
      1130   291.54325      29.819588      1000           1.477585       432.94172      434.41931    
      1140   291.31678      30.150039      1000           2.2955823      432.60542      434.901      
      1150   290.66197      30.706038      1000           3.7536871      431.63303      435.38672    
      1160   289.04037      31.76012       1000           6.6493562      429.22495      435.8743     
      1170   284.44348      34.316221      1000           13.958182      422.39857      436.35675    
      1180   273.77651      39.90465       1000           30.303523      406.55812      436.86164    
      1190   277.69284      38.131809      1000           24.955644      412.37386      437.3295     
      1200   287.24023      33.514469      1000           11.287364      426.55174      437.8391     
      1210   290.64193      31.984629      1000           6.7700484      431.60326      438.37331    
      1220   292.13533      31.428217      1000           5.0911486      433.82096      438.91211    
      1230   292.90478      31.249425      1000           4.4934875      434.9636       439.45709    
      1240   293.03559      31.401721      1000           4.8501144      435.15785      440.00796    
      1250   292.55868      31.8649        1000           6.1142576      434.44964      440.56389    
      1260   291.87835      32.430023      1000           7.6854071      433.43935      441.12475    
      1270   292.09003      32.541463      1000           7.9363609      433.7537       441.69006    
      1280   293.71699      31.936493      1000           6.0911069      436.16974      442.26084    
      1290   295.68067      31.161954      1000           3.7552016      439.0858       442.841      
      1300   297.09877      30.667223      1000           2.2383241      441.19167      443.43       
      1310   297.85453      30.514861      1000           1.7114311      442.31398      444.02541    
      1320   297.96891      30.695137      1000           2.1417243      442.48383      444.62556    
      1330   297.40011      31.226686      1000           3.5904157      441.63916      445.22958    
      1333   297.12415      31.440033      1000           4.1821703      441.22936      445.41153    
Loop time of 0.0431793 on 16 procs for 900 steps with 100 atoms

Performance: 180086.098 tau/day, 20843.298 timesteps/s, 2.084 Matom-step/s
98.3% CPU use with 16 MPI tasks x 1 OpenMP threads

MPI task timing breakdown:
Section |  min time  |  avg time  |  max time  |%varavg| %total
---------------------------------------------------------------
Pair    | 0.00012642 | 0.00071664 | 0.0019834  |   0.0 |  1.66
Neigh   | 0.00010522 | 0.00021913 | 0.0003872  |   0.0 |  0.51
Comm    | 0.014494   | 0.016425   | 0.017455   |   0.7 | 38.04
Output  | 0.013686   | 0.015424   | 0.01767    |   1.0 | 35.72
Modify  | 0.0052438  | 0.0059035  | 0.0083908  |   1.3 | 13.67
Other   |            | 0.004491   |            |       | 10.40

Nlocal:           6.25 ave          11 max           1 min
Histogram: 1 1 2 1 0 2 3 3 1 2
Nghost:        86.4375 ave         103 max          70 min
Histogram: 1 1 1 4 2 0 5 0 0 2
Neighs:          29.25 ave          60 max           1 min
Histogram: 4 0 0 3 2 0 1 3 2 1

Total # of neighbors = 468
Ave neighs/atom = 4.68
Neighbor list builds = 38
Dangerous builds = 0
Final Averages:
Temperature: 297.12414659817198981
Kinetic Energy: 4.412293576982849963
Potential Energy: 0.041821702607803497298
Total Energy: 4.4541152795906500117
Pressure: 31.440033488092101521
Simulation completed!
Total wall time: 0:00:00
