100
 Atoms. Timestep: 340
X 10.0078 0.423392 1.26602
X 3.67776 2.65782 1.3212
X 4.24772 2.65065 2.32756
X 9.85712 9.98988 0.252368
X 3.27129 4.21783 2.33061
X 0.40933 9.42403 1.00098
X 4.08267 3.63015 1.73185
X 2.29772 3.65161 2.33409
X 0.871148 0.318978 0.541078
X 1.15041 4.23025 3.69428
X 2.49774 2.66635 2.90783
X 3.47163 8.10967 5.33108
X 3.78506 9.20473 5.39539
X 3.00021 3.62156 3.20471
X 1.50007 2.90941 2.48713
X 3.56234 2.66266 3.20904
X 1.90977 3.47428 3.37619
X 1.28211 3.98492 2.63058
X 3.25143 3.12195 2.243
X 1.5566 3.17517 6.83966
X 3.79994 3.50959 3.93244
X 3.81289 9.10241 7.24406
X 2.1699 9.52515 6.37647
X 1.9623 2.73109 7.8216
X 2.66089 3.26166 7.13828
X 3.30458 9.60629 6.3608
X 2.22029 2.27026 6.85667
X 4.73669 2.83282 1.32713
X 1.62392 3.38034 8.67571
X 4.75124 3.19748 9.79814
X 0.961923 3.26712 7.80356
X 1.87334 3.84031 7.69923
X 4.09459 3.47456 0.662374
X 4.24112 2.4222 0.40019
X 0.633503 8.44818 0.619122
X 9.61029 7.88025 0.397575
X 0.322418 8.34115 9.56249
X 9.73026 8.59154 1.18924
X 9.74165 8.95865 0.223323
X 9.83438 9.37819 1.95954
X 2.9113 7.82472 6.31705
X 0.690318 8.61627 1.73564
X 4.66066 4.1412 3.57141
X 3.62422 4.50523 3.34272
X 1.22183 7.83316 5.67323
X 4.42655 9.33023 6.36449
X 0.966202 6.90636 6.28295
X 3.65004 8.60963 6.28203
X 2.77877 8.79361 6.90976
X 2.76004 8.88595 5.71556
X 1.98816 7.29191 6.25071
X 1.20536 7.86586 6.79182
X 2.32613 7.92195 5.37776
X 2.23161 7.84493 7.21338
X 1.97803 8.42652 6.25744
X 1.31411 7.73092 7.87186
X 3.6224 5.23778 9.3478
X 4.43171 8.37347 7.9182
X 0.707874 9.363 9.93008
X 0.509687 7.20582 7.25389
X 1.62042 6.90833 7.1927
X 5.18381 3.63362 0.74008
X 9.252 9.56091 1.03103
X 0.49646 3.31834 2.22188
X 6.96664 3.68537 1.33757
X 5.33732 2.51331 0.475936
X 6.09721 3.07473 1.02607
X 6.95009 3.28085 0.285227
X 6.19362 4.13816 0.642945
X 6.35812 2.38243 0.151506
X 4.03528 3.60782 2.84327
X 6.55363 1.87136 4.70187
X 7.61874 1.56248 4.81718
X 0.829035 3.23966 3.31111
X 7.36468 2.41382 4.1083
X 7.30512 4.33713 0.461869
X 0.50225 0.359031 9.47218
X 5.83685 3.34766 9.93599
X 9.38995 0.543522 9.45201
X 0.0677335 1.04395 0.236845
X 5.50819 2.45147 9.40423
X 9.83309 9.50302 9.25937
X 8.78744 8.6235 0.686317
X 7.46608 5.36723 0.680738
X 9.0879 7.77681 1.37258
X 6.74006 4.81706 1.29482
X 6.49284 5.07474 0.233774
X 9.74787 8.21292 2.19911
X 4.54432 8.39158 5.70159
X 0.240968 7.64237 1.32441
X 8.84912 8.82234 1.79485
X 5.20473 7.70579 6.30296
X 0.244224 7.70642 6.29801
X 5.35517 8.79277 6.38615
X 4.481 8.26548 6.83755
X 4.95873 9.1798 7.33215
X 5.43829 8.17053 7.29999
X 0.592019 7.43452 0.239187
X 8.87028 9.57709 9.96392
X 6.58324 4.13893 9.62122
100
 Atoms. Timestep: 350
X 10.0414 0.451721 1.25984
X 3.69586 2.61893 1.31832
X 4.26196 2.65115 2.37161
X 9.85139 9.9771 0.234453
X 3.24946 4.23117 2.36744
X 0.404453 9.41546 0.990736
X 4.06412 3.61928 1.71221
X 2.29849 3.64595 2.33042
X 0.872416 0.323207 0.551477
X 1.14036 4.22774 3.69905
X 2.5014 2.67325 2.92148
X 3.46718 8.11683 5.31681
X 3.77631 9.18853 5.36413
X 3.0254 3.63229 3.21549
X 1.50592 2.92191 2.48562
X 3.54798 2.64878 3.21241
X 1.91813 3.48065 3.38399
X 1.28955 3.97057 2.66168
X 3.26425 3.13681 2.25278
X 1.54892 3.15934 6.81744
X 3.78532 3.49305 3.95463
X 3.80459 9.11929 7.23306
X 2.15104 9.51467 6.37918
X 1.98516 2.71629 7.82792
X 2.68056 3.24583 7.15241
X 3.30028 9.58512 6.34385
X 2.22971 2.25672 6.88395
X 4.70436 2.82072 1.30275
X 1.62161 3.36929 8.68711
X 4.73346 3.19005 9.78505
X 0.981866 3.30332 7.829
X 1.86404 3.8131 7.7153
X 4.08799 3.47697 0.666499
X 4.23755 2.44306 0.378239
X 0.623934 8.45946 0.628061
X 9.60033 7.87057 0.406403
X 0.315921 8.36968 9.56135
X 9.71209 8.56325 1.17171
X 9.76165 8.97585 0.24655
X 9.80028 9.38347 1.95004
X 2.91188 7.80777 6.32175
X 0.690205 8.61718 1.74934
X 4.65178 4.12264 3.57094
X 3.62058 4.52299 3.34249
X 1.23267 7.83829 5.65847
X 4.4359 9.31169 6.39328
X 0.956683 6.92617 6.28791
X 3.66109 8.62894 6.26514
X 2.77567 8.81294 6.89553
X 2.74351 8.90755 5.7138
X 1.98609 7.29131 6.25549
X 1.20816 7.86101 6.78578
X 2.31604 7.9503 5.37849
X 2.23581 7.8418 7.2357
X 2.00872 8.42424 6.23063
X 1.31106 7.74136 7.85723
X 3.62866 5.22617 9.34367
X 4.43447 8.36063 7.93036
X 0.703838 9.38072 9.91518
X 0.498583 7.26407 7.23402
X 1.63123 6.91418 7.18315
X 5.17801 3.61837 0.737077
X 9.24644 9.54989 1.00947
X 0.516047 3.34114 2.19032
X 6.97412 3.66053 1.34066
X 5.35646 2.49276 0.480237
X 6.0942 3.09104 1.04621
X 7.00707 3.24258 0.275956
X 6.1977 4.18653 0.630511
X 6.36386 2.40261 0.174259
X 4.0155 3.62016 2.85044
X 6.55862 1.86777 4.7062
X 7.61247 1.55706 4.81721
X 0.845437 3.24417 3.31464
X 7.38311 2.43846 4.10276
X 7.32543 4.35789 0.458377
X 0.492256 0.356219 9.47719
X 5.79736 3.35264 9.94865
X 9.39597 0.571155 9.4494
X 0.0762509 1.02898 0.203489
X 5.52705 2.45465 9.42607
X 9.85588 9.51592 9.23829
X 8.79123 8.61781 0.706156
X 7.46145 5.32579 0.659755
X 9.0884 7.77594 1.35392
X 6.74012 4.8334 1.27999
X 6.47903 5.0707 0.237495
X 9.74916 8.19067 2.18992
X 4.54423 8.36034 5.68662
X 0.256528 7.62661 1.34918
X 8.82444 8.82228 1.79442
X 5.1741 7.72322 6.32691
X 0.243415 7.68508 6.31225
X 5.32199 8.80211 6.39276
X 4.47015 8.23085 6.85363
X 4.99512 9.17737 7.34623
X 5.44191 8.1721 7.24997
X 0.587337 7.46281 0.242157
X 8.8482 9.54871 9.95456
X 6.58026 4.14121 9.62668
100
 Atoms. Timestep: 360
X 0.0748586 0.479967 1.25369
X 3.71389 2.58016 1.31545
X 4.27616 2.65164 2.41553
X 9.84566 9.96439 0.216594
X 3.22769 4.24447 2.40416
X 0.399587 9.40693 0.980527
X 4.04561 3.60844 1.69262
X 2.29926 3.64032 2.32677
X 0.87368 0.327423 0.561844
X 1.13034 4.22524 3.7038
X 2.50504 2.68014 2.9351
X 3.46274 8.12396 5.30257
X 3.76758 9.17238 5.33296
X 3.05051 3.643 3.22624
X 1.51177 2.93437 2.48411
X 3.53366 2.63493 3.21578
X 1.92648 3.487 3.39177
X 1.29698 3.95627 2.69269
X 3.27704 3.15162 2.26252
X 1.54126 3.14356 6.79528
X 3.77074 3.47657 3.97677
X 3.79632 9.13613 7.22209
X 2.13223 9.50423 6.38187
X 2.00797 2.70154 7.83423
X 2.70018 3.23005 7.1665
X 3.29598 9.56402 6.32694
X 2.2391 2.24321 6.91116
X 4.67214 2.80865 1.27845
X 1.6193 3.35828 8.69849
X 4.71573 3.18264 9.772
X 1.00174 3.3394 7.85437
X 1.85479 3.78598 7.73132
X 4.0814 3.47937 0.670605
X 4.23398 2.46385 0.356349
X 0.614398 8.47069 0.636974
X 9.59039 7.86092 0.415197
X 0.309442 8.39812 9.5602
X 9.69399 8.53505 1.15425
X 9.78158 8.99299 0.269694
X 9.76628 9.38873 1.94058
X 2.91246 7.79088 6.32644
X 0.690089 8.61808 1.763
X 4.64293 4.10413 3.57048
X 3.61695 4.54069 3.34226
X 1.24348 7.84341 5.64375
X 4.44521 9.29321 6.42199
X 0.947196 6.94591 6.29286
X 3.67211 8.64818 6.2483
X 2.77257 8.8322 6.88134
X 2.72704 8.92909 5.71203
X 1.98402 7.29071 6.26026
X 1.21096 7.8562 6.77974
X 2.306 7.97856 5.3792
X 2.24001 7.83868 7.25796
X 2.03931 8.42196 6.20391
X 1.30802 7.75178 7.84265
X 3.6349 5.21459 9.33956
X 4.43722 8.34782 7.94249
X 0.699819 9.39838 9.90033
X 0.487507 7.32214 7.21423
X 1.64201 6.92 7.17364
X 5.17223 3.60317 0.734088
X 9.2409 9.53891 0.987969
X 0.53558 3.36387 2.15886
X 6.98157 3.63576 1.34373
X 5.37553 2.47227 0.484532
X 6.09119 3.1073 1.06628
X 7.0639 3.20443 0.266713
X 6.20175 4.23475 0.618122
X 6.36959 2.42273 0.196946
X 3.99578 3.63247 2.85758
X 6.56359 1.86419 4.71052
X 7.60623 1.55164 4.81725
X 0.861788 3.24867 3.31816
X 7.40148 2.46302 4.09723
X 7.34567 4.37857 0.454889
X 0.482296 0.353418 9.48217
X 5.75798 3.35762 9.96126
X 9.40198 0.598707 9.44679
X 0.0847435 1.01405 0.170232
X 5.54585 2.45781 9.44783
X 9.87859 9.52879 9.21728
X 8.795 8.61213 0.72593
X 7.45683 5.28449 0.638835
X 9.08889 7.77506 1.33532
X 6.74019 4.84969 1.26521
X 6.46527 5.06668 0.241195
X 9.75044 8.16847 2.18075
X 4.54413 8.32919 5.67169
X 0.272042 7.6109 1.37387
X 8.79983 8.82221 1.79399
X 5.14356 7.74059 6.35079
X 0.242599 7.66382 6.32645
X 5.28891 8.81143 6.39935
X 4.4593 8.19634 6.86966
X 5.0314 9.17496 7.36028
X 5.44553 8.17367 7.20011
X 0.58267 7.49102 0.245118
X 8.82619 9.52041 9.94523
X 6.57729 4.14348 9.63213
100
 Atoms. Timestep: 370
X 0.108216 0.508119 1.24755
X 3.73184 2.5415 1.31259
X 4.29032 2.65214 2.4593
X 9.83996 9.95174 0.198798
X 3.20599 4.25773 2.44074
X 0.394739 9.39844 0.970369
X 4.02717 3.59764 1.67312
X 2.30004 3.63471 2.32313
X 0.874942 0.331622 0.572172
X 1.12035 4.22275 3.70854
X 2.50867 2.687 2.94866
X 3.45831 8.13107 5.28838
X 3.75887 9.15628 5.30189
X 3.0755 3.65366 3.23697
X 1.51759 2.94679 2.48261
X 3.51939 2.62113 3.21914
X 1.93481 3.49333 3.39953
X 1.30438 3.94203 2.72358
X 3.28977 3.16637 2.27223
X 1.53363 3.12782 6.77321
X 3.75621 3.46013 3.99884
X 3.78807 9.1529 7.21117
X 2.11347 9.49382 6.38455
X 2.03069 2.68683 7.84051
X 2.71973 3.21432 7.18055
X 3.2917 9.54302 6.3101
X 2.24846 2.22975 6.93828
X 4.64005 2.79662 1.25423
X 1.61701 3.34729 8.70983
X 4.69806 3.17526 9.75898
X 1.02151 3.37535 7.87965
X 1.84561 3.75895 7.74729
X 4.07484 3.48176 0.674686
X 4.23043 2.48457 0.334528
X 0.604904 8.48188 0.645857
X 9.58048 7.8513 0.423941
X 0.302984 8.42647 9.55907
X 9.67598 8.50698 1.1369
X 9.80143 9.01004 0.292733
X 9.73239 9.39397 1.93113
X 2.91305 7.77405 6.33111
X 0.689968 8.61898 1.77662
X 4.63411 4.08568 3.57003
X 3.61334 4.55835 3.34204
X 1.25425 7.8485 5.62909
X 4.45447 9.27482 6.4506
X 0.937753 6.96557 6.29778
X 3.68308 8.66732 6.23151
X 2.76949 8.85138 6.8672
X 2.71065 8.95057 5.71025
X 1.98196 7.29011 6.265
X 1.21378 7.85142 6.77372
X 2.29599 8.00672 5.37988
X 2.24419 7.83558 7.28013
X 2.06976 8.41968 6.17732
X 1.30498 7.76216 7.82812
X 3.64112 5.20305 9.33546
X 4.43996 8.33505 7.95458
X 0.695824 9.41598 9.88553
X 0.476458 7.38001 7.19454
X 1.65274 6.9258 7.16417
X 5.16646 3.58803 0.731124
X 9.23537 9.52797 0.966549
X 0.555051 3.38653 2.1275
X 6.98901 3.61108 1.3468
X 5.39453 2.45185 0.488824
X 6.0882 3.12351 1.08629
X 7.12054 3.16641 0.257502
X 6.20577 4.28274 0.605797
X 6.37531 2.44278 0.219559
X 3.97615 3.64474 2.8647
X 6.56854 1.86063 4.71483
X 7.6 1.54625 4.81728
X 0.87808 3.25314 3.32167
X 7.41979 2.48751 4.09171
X 7.36584 4.39909 0.451394
X 0.472382 0.35063 9.48713
X 5.71876 3.36258 9.97383
X 9.40796 0.626168 9.44419
X 0.0932074 0.999186 0.137094
X 5.56459 2.46096 9.46952
X 9.90123 9.5416 9.19634
X 8.79874 8.60647 0.745622
X 7.45225 5.24342 0.617994
X 9.08936 7.77417 1.31679
X 6.74025 4.86593 1.25049
X 6.45157 5.06273 0.244855
X 9.75171 8.14635 2.17162
X 4.54403 8.29813 5.65682
X 0.287506 7.59524 1.39848
X 8.7753 8.82215 1.79357
X 5.11314 7.75787 6.37455
X 0.241761 7.64265 6.34056
X 5.25598 8.8207 6.4059
X 4.44845 8.16196 6.88566
X 5.06756 9.17255 7.37428
X 5.44915 8.17523 7.15044
X 0.578019 7.51913 0.248068
X 8.80426 9.49219 9.93593
X 6.57433 4.14574 9.63756
100
 Atoms. Timestep: 380
X 0.141452 0.536172 1.24143
X 3.74967 2.50296 1.30976
X 4.30443 2.65264 2.50291
X 9.83426 9.9392 0.181068
X 3.18436 4.27096 2.47718
X 0.389919 9.39002 0.960281
X 4.0088 3.58688 1.6537
X 2.30081 3.62911 2.3195
X 0.876205 0.335802 0.582455
X 1.1104 4.22028 3.71328
X 2.51228 2.69385 2.96218
X 3.4539 8.13815 5.27425
X 3.7502 9.14024 5.27091
X 3.10035 3.66426 3.24769
X 1.52339 2.95915 2.48111
X 3.50517 2.60738 3.22249
X 1.94312 3.49964 3.40727
X 1.31177 3.92786 2.75434
X 3.30245 3.18106 2.2819
X 1.52603 3.11214 6.75121
X 3.74174 3.44375 4.02083
X 3.77985 9.16961 7.2003
X 2.09476 9.48346 6.38723
X 2.05333 2.67218 7.84679
X 2.73922 3.19864 7.19455
X 3.28743 9.52215 6.29331
X 2.25779 2.21633 6.9653
X 4.60814 2.78465 1.23011
X 1.61473 3.33634 8.72116
X 4.68046 3.16792 9.746
X 1.04111 3.41114 7.90485
X 1.83656 3.73207 7.76317
X 4.06829 3.48415 0.67873
X 4.22689 2.5052 0.312781
X 0.595463 8.49301 0.654707
X 9.57062 7.84169 0.432615
X 0.296548 8.45472 9.55793
X 9.65811 8.47905 1.11966
X 9.82118 9.02697 0.315643
X 9.69862 9.39918 1.92172
X 2.91365 7.75729 6.33577
X 0.689842 8.61988 1.79018
X 4.62531 4.06729 3.56957
X 3.60975 4.57595 3.34184
X 1.26498 7.85358 5.61447
X 4.46364 9.25654 6.47911
X 0.928369 6.98513 6.30268
X 3.69402 8.68633 6.21477
X 2.76642 8.87048 6.85313
X 2.69436 8.972 5.70844
X 1.97991 7.28952 6.26971
X 1.21662 7.84669 6.76769
X 2.28605 8.03473 5.38048
X 2.24836 7.83249 7.30222
X 2.10004 8.41742 6.15093
X 1.30195 7.77251 7.81364
X 3.64733 5.19155 9.33137
X 4.4427 8.32233 7.96662
X 0.69186 9.43351 9.87079
X 0.465442 7.43763 7.17504
X 1.66344 6.93158 7.15474
X 5.16067 3.57295 0.728204
X 9.22986 9.51708 0.945217
X 0.574457 3.40911 2.09624
X 6.99642 3.58649 1.34985
X 5.41345 2.4315 0.493119
X 6.08521 3.13967 1.10622
X 7.177 3.12854 0.248325
X 6.20972 4.33041 0.593579
X 6.38101 2.46276 0.242093
X 3.95662 3.65696 2.87179
X 6.57347 1.85707 4.71912
X 7.5938 1.54087 4.81732
X 0.894304 3.25758 3.32519
X 7.43803 2.51191 4.08622
X 7.38591 4.41926 0.447859
X 0.462526 0.347856 9.49205
X 5.67972 3.36753 9.98633
X 9.41392 0.65353 9.4416
X 0.10164 0.984391 0.104093
X 5.58327 2.46409 9.49112
X 9.92377 9.55436 9.17546
X 8.80242 8.60084 0.765216
X 7.44773 5.20276 0.597267
X 9.08979 7.77322 1.29835
X 6.74032 4.88211 1.23584
X 6.43795 5.05894 0.24843
X 9.75298 8.12431 2.16251
X 4.54392 8.26719 5.64199
X 0.302917 7.57964 1.423
X 8.75086 8.82208 1.79314
X 5.08285 7.77502 6.39813
X 0.240872 7.6216 6.35454
X 5.22323 8.8299 6.4124
X 4.43756 8.12774 6.90164
X 5.1036 9.17015 7.38825
X 5.4528 8.1768 7.10101
X 0.573387 7.54714 0.251005
X 8.78241 9.46408 9.92666
X 6.57139 4.14798 9.64296
100
 Atoms. Timestep: 390
X 0.174556 0.564127 1.23534
X 3.76731 2.46452 1.30695
X 4.31849 2.65314 2.54637
X 9.82856 9.9268 0.163401
X 3.16279 4.28416 2.51344
X 0.385153 9.3817 0.950301
X 3.99049 3.57617 1.63437
X 2.30159 3.62355 2.31589
X 0.877476 0.33996 0.592686
X 1.10048 4.21782 3.71802
X 2.51587 2.70067 2.97564
X 3.44949 8.1452 5.26017
X 3.74157 9.12427 5.24005
X 3.12503 3.6748 3.25841
X 1.52917 2.97144 2.47962
X 3.49101 2.59369 3.22584
X 1.95142 3.50592 3.415
X 1.31912 3.91379 2.78495
X 3.31506 3.19568 2.29153
X 1.51846 3.09651 6.7293
X 3.72733 3.42743 4.04275
X 3.77165 9.18626 7.18948
X 2.07611 9.47315 6.38989
X 2.07588 2.65759 7.85307
X 2.75863 3.18302 7.20849
X 3.28317 9.50146 6.27658
X 2.26709 2.20294 6.9922
X 4.57647 2.77275 1.20607
X 1.61247 3.32542 8.73246
X 4.66293 3.16062 9.73305
X 1.06041 3.44671 7.92998
X 1.82776 3.70537 7.77895
X 4.06176 3.48654 0.682724
X 4.22334 2.52572 0.291114
X 0.586087 8.50406 0.663523
X 9.56079 7.83207 0.441186
X 0.290134 8.48287 9.5568
X 9.64042 8.45131 1.10258
X 9.84079 9.04374 0.338388
X 9.66498 9.40437 1.91233
X 2.91426 7.74059 6.34042
X 0.689709 8.62078 1.80369
X 4.61655 4.04897 3.56913
X 3.60618 4.59351 3.34165
X 1.27567 7.85864 5.59992
X 4.47261 9.23846 6.50753
X 0.919067 7.00455 6.30755
X 3.70493 8.70519 6.19809
X 2.76337 8.88949 6.83912
X 2.67817 8.99338 5.70657
X 1.97787 7.28894 6.27438
X 1.21951 7.84203 6.76166
X 2.27619 8.06256 5.38091
X 2.25253 7.82941 7.32423
X 2.13011 8.4152 6.12485
X 1.29894 7.78282 7.79922
X 3.65351 5.18009 9.3273
X 4.44543 8.30966 7.97863
X 0.687933 9.45096 9.85611
X 0.454477 7.49499 7.15585
X 1.67408 6.93733 7.14537
X 5.15487 3.55794 0.72536
X 9.22436 9.50625 0.923982
X 0.593797 3.43162 2.0651
X 7.00381 3.562 1.35288
X 5.43226 2.41122 0.497424
X 6.08222 3.15576 1.12608
X 7.23327 3.09081 0.239183
X 6.21352 4.37753 0.581576
X 6.38671 2.48267 0.264545
X 3.93725 3.66914 2.87883
X 6.57839 1.85354 4.72339
X 7.58763 1.53552 4.81735
X 0.910448 3.26198 3.32871
X 7.45622 2.53623 4.08076
X 7.40584 4.43855 0.44418
X 0.452745 0.345091 9.4969
X 5.64086 3.37246 9.99872
X 9.41984 0.680789 9.43899
X 0.110035 0.969693 0.071257
X 5.60188 2.4672 9.51262
X 9.94622 9.56706 9.15464
X 8.806 8.59524 0.784694
X 7.44329 5.16307 0.576754
X 9.09016 7.7722 1.28003
X 6.74038 4.89824 1.22129
X 6.4245 5.05554 0.251808
X 9.75424 8.10235 2.15344
X 4.54381 8.23637 5.62721
X 0.318274 7.56409 1.44743
X 8.7265 8.82202 1.79273
X 5.05272 7.79196 6.42141
X 0.239869 7.60073 6.36824
X 5.19078 8.83899 6.41882
X 4.42658 8.0937 6.91765
X 5.1395 9.16776 7.40218
X 5.45653 8.17842 7.05192
X 0.568775 7.57504 0.253927
X 8.76064 9.43605 9.91742
X 6.56846 4.15021 9.64833
100
 Atoms. Timestep: 400
X 0.207516 0.591988 1.22929
X 3.78469 2.42614 1.30418
X 4.3325 2.65365 2.58967
X 9.82287 9.91457 0.145788
X 3.14128 4.29734 2.54952
X 0.380499 9.37353 0.940506
X 3.97225 3.56551 1.61516
X 2.30238 3.61801 2.31229
X 0.878763 0.344091 0.602853
X 1.09059 4.21538 3.72277
X 2.51943 2.70748 2.98905
X 3.44508 8.15222 5.24614
X 3.73296 9.10837 5.20929
X 3.14947 3.68527 3.26919
X 1.53493 2.98367 2.47812
X 3.47692 2.58004 3.22918
X 1.95972 3.51217 3.42272
X 1.32647 3.89983 2.81538
X 3.3276 3.21022 2.30111
X 1.51092 3.08093 6.70747
X 3.71298 3.41116 4.06461
X 3.76345 9.20285 7.17874
X 2.0575 9.4629 6.39255
X 2.09835 2.64306 7.85935
X 2.77798 3.16746 7.22239
X 3.2789 9.48098 6.25992
X 2.27636 2.1896 7.01899
X 4.54514 2.76096 1.18211
X 1.61024 3.31454 8.74377
X 4.64547 3.15338 9.72011
X 1.07914 3.482 7.95509
X 1.81948 3.67892 7.79457
X 4.05525 3.48893 0.686648
X 4.21977 2.54613 0.269536
X 0.57679 8.51501 0.672305
X 9.55101 7.82241 0.449601
X 0.283742 8.51091 9.55567
X 9.62302 8.42385 1.08569
X 9.86023 9.06025 0.360899
X 9.63145 9.40954 1.90298
X 2.91488 7.72395 6.34504
X 0.689571 8.62168 1.81715
X 4.60782 4.03071 3.56869
X 3.60265 4.61102 3.3415
X 1.28632 7.86368 5.58542
X 4.48116 9.22069 6.53589
X 0.909888 7.02381 6.31238
X 3.71584 8.72384 6.18146
X 2.76032 8.9084 6.82519
X 2.66211 9.01476 5.70462
X 1.97585 7.28837 6.279
X 1.22247 7.83745 6.75561
X 2.26645 8.09011 5.38095
X 2.25668 7.82636 7.34615
X 2.15991 8.41307 6.0993
X 1.29592 7.7931 7.78487
X 3.65967 5.16867 9.32324
X 4.44814 8.29704 7.99058
X 0.684052 9.46832 9.8415
X 0.443616 7.55205 7.13727
X 1.68468 6.94304 7.13605
X 5.14899 3.54301 0.72265
X 9.21885 9.49549 0.902854
X 0.613072 3.45405 2.03406
X 7.01119 3.53759 1.3559
X 5.45098 2.39101 0.501747
X 6.07923 3.1718 1.14585
X 7.28934 3.05322 0.230074
X 6.217 4.42351 0.57007
X 6.39241 2.50251 0.286915
X 3.9181 3.68128 2.88579
X 6.58328 1.85002 4.72765
X 7.58148 1.53018 4.81738
X 0.9265 3.2663 3.33225
X 7.47434 2.56045 4.07531
X 7.42557 4.45526 0.440061
X 0.443064 0.342315 9.50166
X 5.60225 3.37736 0.0109534
X 9.42571 0.707939 9.43638
X 0.118387 0.955133 0.0386296
X 5.62043 2.4703 9.53402
X 9.96857 9.57969 9.13387
X 8.80945 8.58967 0.80403
X 7.43902 5.12602 0.556748
X 9.09041 7.77104 1.26186
X 6.74045 4.91432 1.20683
X 6.41137 5.05309 0.254698
X 9.75549 8.08048 2.1444
X 4.54369 8.20566 5.61248
X 0.333578 7.5486 1.47176
X 8.70224 8.82195 1.79232
X 5.02274 7.80854 6.44415
X 0.238637 7.58007 6.3814
X 5.15887 8.84784 6.42511
X 4.4154 8.0599 6.93377
X 5.17528 9.16538 7.41607
X 5.46046 8.18017 7.00331
X 0.564182 7.60283 0.256833
X 8.73895 9.40813 9.90822
X 6.56555 4.15243 9.65368
100
 Atoms. Timestep: 410
X 0.240319 0.619762 1.2233
X 3.80165 2.38773 1.30148
X 4.34646 2.65415 2.63281
X 9.81715 9.90256 0.128214
X 3.11982 4.3105 2.58538
X 0.376086 9.36564 0.931054
X 3.95408 3.55489 1.59609
X 2.30318 3.6125 2.30871
X 0.880083 0.348187 0.612942
X 1.08073 4.21297 3.72753
X 2.52296 2.71426 3.00241
X 3.44068 8.15918 5.23217
X 3.7244 9.09255 5.17863
X 3.17355 3.69566 3.28008
X 1.54066 2.99582 2.47663
X 3.4629 2.56644 3.23253
X 1.96803 3.51838 3.43044
X 1.33381 3.88605 2.84558
X 3.34005 3.22468 2.31064
X 1.50341 3.06541 6.68573
X 3.69869 3.39494 4.08639
X 3.75525 9.21937 7.16807
X 2.03894 9.4527 6.3952
X 2.12072 2.62859 7.86565
X 2.79726 3.15196 7.23624
X 3.27461 9.46082 6.24334
X 2.28561 2.17628 7.04565
X 4.51429 2.74936 1.15821
X 1.60805 3.30367 8.75508
X 4.62811 3.14622 9.70716
X 1.09679 3.51691 7.98029
X 1.81224 3.65284 7.8099
X 4.04875 3.49133 0.690476
X 4.21618 2.56639 0.248062
X 0.567594 8.52582 0.681052
X 9.54128 7.81267 0.457776
X 0.277372 8.53886 9.55455
X 9.60604 8.39677 1.06904
X 9.87934 9.0764 0.383033
X 9.59805 9.41469 1.89365
X 2.91551 7.70739 6.34966
X 0.689428 8.62257 1.83056
X 4.59913 4.01252 3.56827
X 3.59915 4.6285 3.34138
X 1.29691 7.8687 5.57099
X 4.48879 9.20353 6.56429
X 0.900897 7.04282 6.31716
X 3.72678 8.74222 6.16486
X 2.75728 8.92719 6.81136
X 2.64621 9.03618 5.70254
X 1.97384 7.28781 6.28357
X 1.22552 7.83295 6.74955
X 2.25686 8.11721 5.38022
X 2.26083 7.82331 7.36799
X 2.18936 8.41115 6.0747
X 1.29292 7.80334 7.77058
X 3.66581 5.15728 9.3192
X 4.45086 8.28446 8.0025
X 0.68023 9.48558 9.82696
X 0.432967 7.60885 7.11979
X 1.69522 6.94871 7.1268
X 5.143 3.52819 0.720176
X 9.21333 9.48481 0.881844
X 0.632281 3.4764 2.00314
X 7.01856 3.51328 1.35891
X 5.46957 2.37087 0.506095
X 6.07624 3.18777 1.16556
X 7.34523 3.01576 0.220999
X 6.21968 4.46689 0.5598
X 6.39813 2.52228 0.309201
X 3.89931 3.69338 2.89263
X 6.58815 1.84651 4.73189
X 7.57536 1.52486 4.81741
X 0.942435 3.27051 3.33584
X 7.49239 2.58459 4.06988
X 7.44514 4.46489 0.434746
X 0.433524 0.339483 9.50626
X 5.56394 3.3822 0.0229286
X 9.43152 0.734977 9.43374
X 0.126676 0.940785 0.00628344
X 5.63891 2.47337 9.55531
X 9.9908 9.59225 9.11315
X 8.81268 8.58418 0.823197
X 7.43488 5.09613 0.537998
X 9.09047 7.76965 1.24389
X 6.74052 4.93036 1.1925
X 6.39903 5.05307 0.256348
X 9.75672 8.05869 2.13539
X 4.54356 8.17506 5.59779
X 0.348833 7.53317 1.49599
X 8.67807 8.82188 1.79192
X 4.99286 7.82455 6.46597
X 0.236973 7.55965 6.39354
X 5.12799 8.8562 6.43116
X 4.40384 8.02639 6.95016
X 5.21092 9.16301 7.42992
X 5.46482 8.18221 6.95545
X 0.55961 7.63051 0.259721
X 8.71734 9.3803 9.89905
X 6.56265 4.15463 9.659
100
 Atoms. Timestep: 420
X 0.272944 0.647462 1.21738
X 3.81801 2.34919 1.2989
X 4.36038 2.65466 2.6758
X 9.8114 9.89082 0.110658
X 3.0984 4.32366 2.621
X 0.372203 9.35822 0.922284
X 3.93597 3.54433 1.57717
X 2.304 3.60703 2.30514
X 0.881457 0.352238 0.622931
X 1.0709 4.2106 3.73231
X 2.52645 2.72104 3.0157
X 3.43629 8.16609 5.21825
X 3.71587 9.07683 5.14807
X 3.19706 3.70594 3.29124
X 1.54636 3.00789 2.47513
X 3.44896 2.55289 3.23587
X 1.97636 3.52454 3.43819
X 1.34117 3.87249 2.87549
X 3.35239 3.23903 2.3201
X 1.49593 3.04994 6.66406
X 3.68445 3.37877 4.10811
X 3.74705 9.23583 7.15747
X 2.0204 9.44257 6.39783
X 2.143 2.6142 7.87199
X 2.81647 3.13651 7.25004
X 3.27026 9.44106 6.22683
X 2.29483 2.16298 7.07217
X 4.48413 2.73806 1.13433
X 1.60588 3.29283 8.7664
X 4.61087 3.13918 9.69416
X 1.11249 3.55138 8.0058
X 1.80687 3.62718 7.82472
X 4.04227 3.49374 0.694171
X 4.21251 2.58646 0.226719
X 0.558528 8.53643 0.689764
X 9.53161 7.80273 0.465572
X 0.271021 8.5667 9.55343
X 9.58971 8.37028 1.05271
X 9.89786 9.09197 0.404474
X 9.56476 9.41981 1.88435
X 2.91616 7.69088 6.35425
X 0.689278 8.62346 1.84391
X 4.59047 3.9944 3.56785
X 3.59571 4.64595 3.34131
X 1.30744 7.8737 5.55661
X 4.49447 9.18751 6.59299
X 0.892202 7.06152 6.32186
X 3.73782 8.76025 6.14828
X 2.75423 8.94586 6.79763
X 2.63048 9.05767 5.70029
X 1.97186 7.28727 6.28806
X 1.22869 7.82857 6.74346
X 2.24747 8.14357 5.37796
X 2.26498 7.82029 7.38974
X 2.21843 8.40967 6.05183
X 1.28992 7.81354 7.75635
X 3.67192 5.14594 9.31516
X 4.45356 8.27193 8.01437
X 0.67648 9.50272 9.81251
X 0.422683 7.66555 7.10407
X 1.70571 6.95433 7.11764
X 5.13677 3.51351 0.718114
X 9.20777 9.47423 0.860959
X 0.651428 3.49867 1.97233
X 7.02591 3.48907 1.3619
X 5.48805 2.35079 0.510481
X 6.07324 3.20368 1.18518
X 7.40092 2.97845 0.211957
X 6.2206 4.50449 0.552453
X 6.40387 2.542 0.331405
X 3.88109 3.70547 2.89924
X 6.593 1.84302 4.73611
X 7.56928 1.51956 4.81744
X 0.958215 3.27455 3.33953
X 7.51038 2.60864 4.06448
X 7.46492 4.45968 0.427041
X 0.424195 0.336496 9.51059
X 5.52602 3.38696 0.0344715
X 9.43723 0.761899 9.43105
X 0.134865 0.926788 -0.025659
X 5.65733 2.47643 9.57647
X 10.0129 9.60472 9.09246
X 8.81558 8.57879 0.842161
X 7.4305 5.08115 0.521692
X 9.0902 7.76787 1.22622
X 6.74061 4.94637 1.17832
X 6.38844 5.05866 0.255055
X 9.75794 8.03698 2.12643
X 4.54343 8.14458 5.58316
X 0.364041 7.51778 1.52013
X 8.65398 8.82182 1.79154
X 4.96295 7.83963 6.4863
X 0.23459 7.53939 6.40402
X 5.09916 8.86353 6.4367
X 4.39161 7.99324 6.96706
X 5.24644 9.16065 7.44373
X 5.47004 8.18479 6.90865
X 0.555059 7.65806 0.262587
X 8.69582 9.35256 9.88992
X 6.55977 4.15681 9.66428
100
 Atoms. Timestep: 430
X 0.305364 0.675111 1.21157
X 3.83354 2.31033 1.29653
X 4.37424 2.65518 2.71864
X 9.80559 9.87938 0.0930954
X 3.07698 4.33682 2.65637
X 0.369472 9.3517 0.914899
X 3.91792 3.53383 1.55847
X 2.30484 3.60159 2.30158
X 0.882914 0.356226 0.632791
X 1.06109 4.20826 3.73712
X 2.52989 2.72779 3.02894
X 3.43188 8.17293 5.20439
X 3.70738 9.06121 5.1176
X 3.21967 3.71611 3.30289
X 1.55202 3.01986 2.47363
X 3.43511 2.53939 3.23921
X 1.98475 3.53066 3.44597
X 1.34859 3.85928 2.90502
X 3.36462 3.25326 2.32949
X 1.48847 3.03452 6.64247
X 3.67028 3.36265 4.12976
X 3.73881 9.25224 7.14696
X 2.00188 9.4325 6.40046
X 2.16518 2.59989 7.87837
X 2.83562 3.12112 7.26378
X 3.26581 9.42184 6.21042
X 2.30403 2.14969 7.09853
X 4.45487 2.72723 1.11039
X 1.60376 3.28199 8.77776
X 4.59379 3.13232 9.68104
X 1.12514 3.58545 8.03195
X 1.8045 3.60193 7.83869
X 4.03582 3.49616 0.69768
X 4.20873 2.60628 0.205555
X 0.549628 8.54676 0.698439
X 9.52204 7.79245 0.472775
X 0.26469 8.59444 9.55231
X 9.57437 8.34471 1.03681
X 9.91514 9.10658 0.424549
X 9.5316 9.42492 1.87508
X 2.91682 7.67444 6.35884
X 0.689124 8.62435 1.85721
X 4.58184 3.97634 3.56745
X 3.59232 4.66338 3.34131
X 1.31792 7.87867 5.54229
X 4.49644 9.17357 6.62258
X 0.883974 7.07975 6.32645
X 3.74904 8.77783 6.13171
X 2.75117 8.96438 6.78404
X 2.61491 9.07932 5.69782
X 1.9699 7.28676 6.29246
X 1.232 7.82429 6.73735
X 2.23823 8.16878 5.37298
X 2.26912 7.81728 7.4114
X 2.24711 8.40899 6.0319
X 1.28693 7.8237 7.74219
X 3.67802 5.13463 9.31115
X 4.45626 8.25945 8.02621
X 0.672821 9.51971 9.79816
X 0.412904 7.72244 7.09069
X 1.71614 6.9599 7.10858
X 5.13018 3.499 0.716755
X 9.20216 9.46376 0.840208
X 0.670513 3.52087 1.94162
X 7.03326 3.46494 1.36489
X 5.50639 2.33077 0.514914
X 6.07024 3.21953 1.20474
X 7.45642 2.94126 0.202947
X 6.21839 4.53175 0.550561
X 6.40964 2.56166 0.353528
X 3.86382 3.71755 2.90541
X 6.59782 1.83955 4.74032
X 7.56322 1.51427 4.81747
X 0.973779 3.27833 3.34339
X 7.52831 2.63261 4.05909
X 7.48558 4.43681 0.416664
X 0.415193 0.33315 9.51447
X 5.48864 3.39159 0.0452915
X 9.44282 0.788702 9.42828
X 0.14288 0.913392 9.94301
X 5.67569 2.47947 9.5975
X 0.0348922 9.61709 9.07179
X 8.81801 8.57356 0.860886
X 7.42521 5.08391 0.508107
X 9.08939 7.76546 1.20896
X 6.74073 4.96235 1.16429
X 6.38094 5.07441 0.24827
X 9.75914 8.01537 2.1175
X 4.54329 8.11421 5.56857
X 0.379209 7.50245 1.54416
X 8.62997 8.82176 1.79118
X 4.93289 7.85342 6.50452
X 0.231155 7.51912 6.41229
X 5.07416 8.86891 6.44115
X 4.37832 7.9605 6.98484
X 5.28184 9.15829 7.4575
X 5.47665 8.18819 6.8632
X 0.550527 7.68549 0.265429
X 8.67437 9.32492 9.88082
X 6.55691 4.15897 9.66954
100
 Atoms. Timestep: 440
X 0.337569 0.702762 1.20591
X 3.84803 2.27088 1.29447
X 4.38808 2.65569 2.76136
X 9.79969 9.86826 0.0754875
X 3.05553 4.35 2.69148
X 0.369113 9.3468 0.910234
X 3.8999 3.52337 1.54003
X 2.30571 3.59619 2.29803
X 0.884495 0.360124 0.642486
X 1.05129 4.20596 3.74198
X 2.53326 2.73455 3.04212
X 3.42747 8.17967 5.19058
X 3.69894 9.0457 5.08721
X 3.24081 3.72616 3.31545
X 1.55765 3.03173 2.47212
X 3.42134 2.52591 3.24256
X 1.99323 3.53671 3.45382
X 1.35616 3.84656 2.93406
X 3.37671 3.26736 2.33876
X 1.48104 3.01914 6.62095
X 3.65616 3.34657 4.15138
X 3.73054 9.26861 7.13654
X 1.98336 9.42248 6.40308
X 2.18729 2.58567 7.88485
X 2.85473 3.10577 7.27749
X 3.26116 9.40332 6.19409
X 2.31323 2.13638 7.12472
X 4.42674 2.71708 1.08629
X 1.60168 3.27115 8.78916
X 4.57692 3.12574 9.6677
X 1.13384 3.61936 8.05909
X 1.80601 3.57683 7.8515
X 4.02939 3.49862 0.700937
X 4.20477 2.62578 0.184637
X 0.540938 8.55671 0.707084
X 9.51258 7.78159 0.479063
X 0.25837 8.6221 9.5512
X 9.56047 8.32053 1.02147
X 9.92999 9.11961 0.441966
X 9.49852 9.43 1.86584
X 2.9175 7.65804 6.36342
X 0.688964 8.62523 1.87047
X 4.57324 3.95833 3.56706
X 3.589 4.68082 3.34138
X 1.32834 7.88361 5.52802
X 4.49249 9.16284 6.65396
X 0.876463 7.09737 6.33089
X 3.76061 8.79482 6.1151
X 2.74807 8.98275 6.7706
X 2.59948 9.10119 5.69509
X 1.96799 7.28627 6.29674
X 1.23546 7.82014 6.73123
X 2.22899 8.19238 5.36378
X 2.27327 7.81428 7.433
X 2.27559 8.40952 6.01642
X 1.28393 7.83384 7.72809
X 3.6841 5.12335 9.30714
X 4.45895 8.247 8.03801
X 0.669272 9.53652 9.78392
X 0.40365 7.77988 7.07976
X 1.72651 6.96541 7.09963
X 5.12298 3.4847 0.71656
X 9.19646 9.45341 0.819579
X 0.689553 3.54302 1.911
X 7.04061 3.44087 1.36786
X 5.52462 2.31079 0.519412
X 6.06722 3.23534 1.22423
X 7.51179 2.90417 0.193962
X 6.21257 4.54705 0.555208
X 6.41546 2.5813 0.375592
X 3.84807 3.72966 2.91079
X 6.60261 1.83609 4.74452
X 7.55719 1.50899 4.8175
X 0.989036 3.28168 3.34753
X 7.5462 2.65652 4.05372
X 7.50716 4.40298 0.404742
X 0.406705 0.329063 9.51759
X 5.452 3.39604 0.0549372
X 9.44823 0.815407 9.42541
X 0.150583 0.901029 9.91259
X 5.69402 2.48251 9.61841
X 0.0567556 9.62937 9.05109
X 8.8198 8.56857 0.879357
X 7.419 5.09767 0.496091
X 9.08771 7.76208 1.19232
X 6.74088 4.97833 1.15044
X 6.377 5.10196 0.234884
X 9.76031 7.99383 2.10861
X 4.54314 8.08392 5.55401
X 0.394354 7.48714 1.56811
X 8.60601 8.8217 1.79085
X 4.90264 7.86573 6.52008
X 0.226364 7.49869 6.41829
X 5.05516 8.87124 6.4436
X 4.36345 7.92815 7.00395
X 5.31715 9.15594 7.47124
X 5.48517 8.19262 6.81915
X 0.546011 7.71282 0.268244
X 8.65298 9.29735 9.87174
X 6.55407 4.16112 9.67477
100
 Atoms. Timestep: 450
X 0.369583 0.730522 1.20043
X 3.86135 2.23055 1.29282
X 4.4019 2.65622 2.80408
X 9.79367 9.85745 0.057774
X 3.03397 4.36323 2.7264
X 0.373 9.34454 0.910295
X 3.88184 3.51293 1.52189
X 2.30663 3.59083 2.29447
X 0.886254 0.363901 0.651983
X 1.04147 4.20371 3.74692
X 2.53657 2.74132 3.05528
X 3.42301 8.18631 5.17679
X 3.69053 9.0303 5.0568
X 3.25973 3.73609 3.32959
X 1.56325 3.04353 2.47059
X 3.40765 2.51243 3.24592
X 2.00186 3.54271 3.46178
X 1.36402 3.83458 2.96245
X 3.38867 3.28134 2.34792
X 1.47362 3.00376 6.59942
X 3.64204 3.33048 4.173
X 3.72216 9.28499 7.12618
X 1.96479 9.4125 6.4057
X 2.20937 2.57152 7.89147
X 2.87383 3.09043 7.29119
X 3.25621 9.38564 6.17782
X 2.32244 2.12299 7.15077
X 4.39982 2.70779 1.06186
X 1.59964 3.26028 8.80063
X 4.56034 3.11954 9.65394
X 1.13852 3.65355 8.08738
X 1.8115 3.5515 7.86306
X 4.02299 3.50111 0.703854
X 4.20049 2.64486 0.164058
X 0.532493 8.56617 0.715716
X 9.50327 7.76976 0.48398
X 0.252046 8.64974 9.55008